# OOMMF OVF 2.0
#
# Segment count: 1
#
# Begin: Segment
# Begin: Header
#
# Title: Oxs_MinDriver::Magnetization
# Desc: Oxs vector field output
# Desc:  MIF source file: /home/david/git/oommf-dmi/examples/sk_lattice_DMI_Cnv_PBCs_TMP.mif
# Desc:  Iteration: 785, State id: 1611
# Desc:  Stage: 0, Stage iteration: 785
# Desc:  Stage simulation time: -1 s
# Desc:  Total simulation time: -2 s
# meshunit: m
# meshtype: rectangular
# xbase: 5.8593749999999995e-11
# ybase: 5.8593749999999995e-11
# zbase: 1.0000000000000001e-09
# xnodes: 128
# ynodes: 128
# znodes: 1
# xstepsize: 1.1718749999999999e-10
# ystepsize: 1.1718749999999999e-10
# zstepsize: 2.0000000000000001e-09
# xmin: 0
# ymin: 0
# zmin: 0
# xmax: 1.4999999999999999e-08
# ymax: 1.4999999999999999e-08
# zmax: 2.0000000000000001e-09
# valuedim: 3
# valuelabels: Magnetization_x Magnetization_y Magnetization_z
# valueunits: A/m A/m A/m
#
# End: Header
#
# Begin: Data Text
 -3.24772740086193 -3.24772740086113 1099999.99999041
 -9.76365045335903 -3.29525574616213 1099999.99995173
 -16.3409641003695 -3.39081328942576 1099999.99987340
 -23.0203826159460 -3.53539871301443 1099999.99975344
 -29.8422403516479 -3.73051253292768 1099999.99958887
 -36.8463678092268 -3.97814604328445 1099999.99937569
 -44.0719085194929 -4.28080643235700 1099999.99910879
 -51.5571043886054 -4.64151877963638 1099999.99878196
 -59.3390993094470 -5.06381168228140 1099999.99838783
 -67.4536867304045 -5.55172096833814 1099999.99791781
 -75.9349826880575 -6.10983805138948 1099999.99736207
 -84.8151396978175 -6.74323662448171 1099999.99670951
 -94.1239796477576 -7.45751188013852 1099999.99594776
 -103.888559817135 -8.25878324556544 1099999.99506316
 -114.132794582391 -9.15366070005584 1099999.99404087
 -124.876938568563 -10.1492442068930 1099999.99286488
 -136.137039805696 -11.2530949914673 1099999.99151822
 -147.924383878748 -12.4732111313806 1099999.98998309
 -160.244929061840 -13.8179858263612 1099999.98824119
 -173.098675520658 -15.2961683013609 1099999.98627403
 -186.478976225735 -16.9168020721377 1099999.98406337
 -200.371927230486 -18.6891540316442 1099999.98159173
 -214.755685930207 -20.6226330417511 1099999.97884305
 -229.599846753602 -22.7267140969619 1099999.97580337
 -244.864775834089 -25.0107855323323 1099999.97246168
 -260.501054243750 -27.4840823772752 1099999.96881083
 -276.448948388667 -30.1554857024480 1099999.96484847
 -292.637958547430 -33.0334212495671 1099999.96057810
 -308.986475144984 -36.1256533674233 1099999.95601013
 -325.401583268350 -39.4391213848718 1099999.95116289
 -341.778936353430 -42.9797301860625 1099999.94606359
 -358.002890590803 -46.7521327956641 1099999.94074917
 -373.946752139169 -50.7595557334004 1099999.93526695
 -389.473260299706 -55.0035242975262 1099999.92967509
 -404.435318689290 -59.4836620640862 1099999.92404262
 -418.676945988954 -64.1974761627316 1099999.91844922
 -432.034440138260 -69.1401072868379 1099999.91298449
 -444.337936123821 -74.3041760145485 1099999.90774667
 -455.413038781461 -79.6795272671428 1099999.90284097
 -465.082844371311 -85.2531396819376 1099999.89837720
 -473.170188022747 -91.0089252374338 1099999.89446697
 -479.500080499037 -96.9276895141633 1099999.89122031
 -483.902346119232 -102.987040736074 1099999.88874190
 -486.214418709206 -109.161382525707 1099999.88712696
 -486.284262335578 -115.421999078811 1099999.88645698
 -483.973367213211 -121.737125121879 1099999.88679538
 -479.159688838474 -128.072133233988 1099999.88818341
 -471.740596850114 -134.389781641158 1099999.89063645
 -461.635643564508 -140.650477554121 1099999.89414089
 -448.789128570187 -146.812689669163 1099999.89865197
 -433.172449226789 -152.833354255695 1099999.90409254
 -414.785978333844 -158.668358783913 1099999.91035315
 -393.660668007641 -164.273089916317 1099999.91729347
 -369.859077053692 -169.603008303873 1099999.92474503
 -343.475918476978 -174.614256050559 1099999.93251552
 -314.638051155473 -179.264296654425 1099999.94039418
 -283.503834276137 -183.512556610301 1099999.94815851
 -250.261890423869 -187.321031225136 1099999.95558173
 -215.129292410005 -190.654940580800 1099999.96244095
 -178.349153711674 -193.483265741032 1099999.96852537
 -140.187618312805 -195.779284654782 1099999.97364450
 -100.930471300698 -197.521043232475 1099999.97763567
 -60.8791985475564 -198.691718371939 1099999.98037060
 -20.3467857796129 -199.279925459644 1099999.98176069
 20.3467857796134 -199.279925459647 1099999.98176069
 60.8791985475542 -198.691718371936 1099999.98037060
 100.930471300698 -197.521043232483 1099999.97763567
 140.187618312805 -195.779284654783 1099999.97364450
 178.349153711672 -193.483265741042 1099999.96852537
 215.129292410000 -190.654940580804 1099999.96244095
 250.261890423867 -187.321031225153 1099999.95558173
 283.503834276133 -183.512556610308 1099999.94815851
 314.638051155469 -179.264296654446 1099999.94039418
 343.475918476973 -174.614256050560 1099999.93251552
 369.859077053685 -169.603008303885 1099999.92474503
 393.660668007635 -164.273089916318 1099999.91729347
 414.785978333839 -158.668358783921 1099999.91035315
 433.172449226784 -152.833354255693 1099999.90409254
 448.789128570183 -146.812689669171 1099999.89865197
 461.635643564506 -140.650477554123 1099999.89414089
 471.740596850113 -134.389781641162 1099999.89063645
 479.159688838471 -128.072133233986 1099999.88818341
 483.973367213212 -121.737125121878 1099999.88679538
 486.284262335580 -115.421999078810 1099999.88645698
 486.214418709206 -109.161382525709 1099999.88712696
 483.902346119232 -102.987040736076 1099999.88874190
 479.500080499038 -96.9276895141670 1099999.89122031
 473.170188022748 -91.0089252374349 1099999.89446697
 465.082844371311 -85.2531396819393 1099999.89837720
 455.413038781461 -79.6795272671409 1099999.90284097
 444.337936123818 -74.3041760145436 1099999.90774667
 432.034440138262 -69.1401072868361 1099999.91298449
 418.676945988953 -64.1974761627349 1099999.91844922
 404.435318689291 -59.4836620640869 1099999.92404262
 389.473260299705 -55.0035242975280 1099999.92967509
 373.946752139169 -50.7595557334049 1099999.93526695
 358.002890590805 -46.7521327956633 1099999.94074917
 341.778936353434 -42.9797301860623 1099999.94606359
 325.401583268349 -39.4391213848730 1099999.95116289
 308.986475144986 -36.1256533674255 1099999.95601013
 292.637958547432 -33.0334212495689 1099999.96057810
 276.448948388668 -30.1554857024509 1099999.96484847
 260.501054243752 -27.4840823772785 1099999.96881083
 244.864775834089 -25.0107855323357 1099999.97246168
 229.599846753603 -22.7267140969648 1099999.97580337
 214.755685930208 -20.6226330417511 1099999.97884305
 200.371927230488 -18.6891540316461 1099999.98159173
 186.478976225735 -16.9168020721406 1099999.98406337
 173.098675520661 -15.2961683013629 1099999.98627403
 160.244929061844 -13.8179858263638 1099999.98824119
 147.924383878752 -12.4732111313833 1099999.98998309
 136.137039805696 -11.2530949914669 1099999.99151822
 124.876938568563 -10.1492442068936 1099999.99286488
 114.132794582393 -9.15366070005775 1099999.99404087
 103.888559817135 -8.25878324556500 1099999.99506316
 94.1239796477575 -7.45751188013933 1099999.99594776
 84.8151396978150 -6.74323662448192 1099999.99670951
 75.9349826880570 -6.10983805139048 1099999.99736207
 67.4536867304040 -5.55172096833932 1099999.99791781
 59.3390993094467 -5.06381168228195 1099999.99838783
 51.5571043886054 -4.64151877963711 1099999.99878196
 44.0719085194928 -4.28080643235626 1099999.99910879
 36.8463678092257 -3.97814604328442 1099999.99937569
 29.8422403516474 -3.73051253292773 1099999.99958887
 23.0203826159472 -3.53539871301338 1099999.99975344
 16.3409641003689 -3.39081328942568 1099999.99987340
 9.76365045335935 -3.29525574616223 1099999.99995173
 3.24772740086188 -3.24772740086074 1099999.99999041
 -3.29525574616155 -9.76365045335837 1099999.99995173
 -9.90674118872167 -9.90674118872209 1099999.99991078
 -16.5811093474585 -10.1944251736051 1099999.99982779
 -23.3600834795950 -10.6297221652324 1099999.99970060
 -30.2849939043828 -11.2171416876451 1099999.99952591
 -37.3966737265735 -11.9627256194092 1099999.99929926
 -44.7353079016792 -12.8740415565400 1099999.99901501
 -52.3401466074366 -13.9601919090194 1099999.99866619
 -60.2493669501316 -15.2318576940985 1099999.99824455
 -68.4998043808113 -16.7012571856989 1099999.99774038
 -77.1266029615260 -18.3822004619944 1099999.99714254
 -86.1629571035426 -20.2900455897478 1099999.99643830
 -95.6397088459706 -22.4417220296926 1099999.99561337
 -105.584954926944 -24.8557045634476 1099999.99465182
 -116.023570345188 -27.5519786260850 1099999.99353610
 -126.976769359636 -30.5520153709433 1099999.99224703
 -138.461496704682 -33.8786845247633 1099999.99076393
 -150.489874189447 -37.5561885354490 1099999.98906470
 -163.068614910287 -41.6099268335426 1099999.98712602
 -176.198357812638 -46.0663879797127 1099999.98492365
 -189.872994644375 -50.9529592562114 1099999.98243275
 -204.078981556730 -56.2977131283728 1099999.97962833
 -218.794692525203 -62.1291760563206 1099999.97648584
 -233.989686022468 -68.4760577749164 1099999.97298175
 -249.624102396630 -75.3668881057993 1099999.96909438
 -265.648014253521 -82.8296616148648 1099999.96480472
 -282.000891971518 -90.8913950527254 1099999.96009739
 -298.611085540174 -99.5776916522071 1099999.95496168
 -315.395526793205 -108.912202065342 1099999.94939263
 -332.259436666230 -118.916075295110 1099999.94339210
 -349.096200624359 -129.607355350407 1099999.93696990
 -365.787476466942 -141.000353293680 1099999.93014474
 -382.203428594933 -153.104992690860 1099999.92294518
 -398.203207965586 -165.926124976495 1099999.91541033
 -413.635702814057 -179.462844774371 1099999.90759027
 -428.340427222162 -193.707808477018 1099999.89954625
 -442.148806068522 -208.646587692487 1099999.89135046
 -454.885656410235 -224.257024333899 1099999.88308537
 -466.370943177514 -240.508658390734 1099999.87484260
 -476.421818689166 -257.362236631866 1099999.86672132
 -484.854946076042 -274.769298116537 1099999.85882613
 -491.489001238080 -292.671882206089 1099999.85126441
 -496.147421102639 -311.002348139881 1099999.84414330
 -498.661281320181 -329.683355618632 1099999.83756627
 -498.872378946966 -348.628014994149 1099999.83162947
 -496.636272802577 -367.740200570877 1099999.82641797
 -491.825431397050 -386.915082081790 1099999.82200201
 -484.332256142496 -406.039820385285 1099999.81843359
 -474.071992706500 -424.994476768569 1099999.81574337
 -460.985460016659 -443.653156323099 1099999.81393829
 -445.041459834450 -461.885262362934 1099999.81300003
 -426.238817117052 -479.557015205920 1099999.81288432
 -404.608041669297 -496.533046017165 1099999.81352147
 -380.212457570636 -512.678201182019 1099999.81481796
 -353.148776228699 -527.859359645787 1099999.81665927
 -323.547135110109 -541.947380666191 1099999.81891375
 -291.570443944647 -554.819039468196 1099999.82143749
 -257.413113759504 -566.358957463435 1099999.82408000
 -221.299219340290 -576.461463911274 1099999.82669037
 -183.479935643811 -585.032344101438 1099999.82912375
 -144.230500038810 -591.990420314899 1099999.83124767
 -103.846595642050 -597.268963975729 1099999.83294802
 -62.6403146846076 -600.816865890303 1099999.83413421
 -20.9357455869150 -602.599538784118 1099999.83474339
 20.9357455869119 -602.599538784111 1099999.83474339
 62.6403146846048 -600.816865890313 1099999.83413421
 103.846595642046 -597.268963975729 1099999.83294802
 144.230500038809 -591.990420314907 1099999.83124767
 183.479935643806 -585.032344101443 1099999.82912375
 221.299219340283 -576.461463911282 1099999.82669037
 257.413113759499 -566.358957463441 1099999.82408000
 291.570443944645 -554.819039468206 1099999.82143749
 323.547135110106 -541.947380666190 1099999.81891375
 353.148776228699 -527.859359645797 1099999.81665927
 380.212457570628 -512.678201182014 1099999.81481796
 404.608041669292 -496.533046017170 1099999.81352147
 426.238817117046 -479.557015205918 1099999.81288432
 445.041459834446 -461.885262362938 1099999.81300003
 460.985460016655 -443.653156323101 1099999.81393829
 474.071992706503 -424.994476768568 1099999.81574337
 484.332256142494 -406.039820385287 1099999.81843359
 491.825431397049 -386.915082081784 1099999.82200201
 496.636272802576 -367.740200570872 1099999.82641797
 498.872378946966 -348.628014994143 1099999.83162947
 498.661281320179 -329.683355618629 1099999.83756627
 496.147421102641 -311.002348139882 1099999.84414330
 491.489001238081 -292.671882206088 1099999.85126441
 484.854946076045 -274.769298116536 1099999.85882613
 476.421818689167 -257.362236631864 1099999.86672132
 466.370943177518 -240.508658390734 1099999.87484260
 454.885656410233 -224.257024333898 1099999.88308537
 442.148806068522 -208.646587692484 1099999.89135046
 428.340427222167 -193.707808477016 1099999.89954625
 413.635702814057 -179.462844774375 1099999.90759027
 398.203207965588 -165.926124976494 1099999.91541033
 382.203428594934 -153.104992690864 1099999.92294518
 365.787476466944 -141.000353293682 1099999.93014474
 349.096200624359 -129.607355350408 1099999.93696990
 332.259436666230 -118.916075295111 1099999.94339210
 315.395526793205 -108.912202065340 1099999.94939263
 298.611085540174 -99.5776916522115 1099999.95496168
 282.000891971519 -90.8913950527278 1099999.96009739
 265.648014253521 -82.8296616148664 1099999.96480472
 249.624102396631 -75.3668881058031 1099999.96909438
 233.989686022471 -68.4760577749168 1099999.97298175
 218.794692525205 -62.1291760563214 1099999.97648584
 204.078981556732 -56.2977131283723 1099999.97962833
 189.872994644376 -50.9529592562121 1099999.98243275
 176.198357812639 -46.0663879797155 1099999.98492365
 163.068614910290 -41.6099268335448 1099999.98712602
 150.489874189448 -37.5561885354525 1099999.98906470
 138.461496704684 -33.8786845247653 1099999.99076393
 126.976769359637 -30.5520153709422 1099999.99224703
 116.023570345187 -27.5519786260864 1099999.99353610
 105.584954926944 -24.8557045634488 1099999.99465182
 95.6397088459709 -22.4417220296938 1099999.99561337
 86.1629571035433 -20.2900455897501 1099999.99643830
 77.1266029615249 -18.3822004619938 1099999.99714254
 68.4998043808116 -16.7012571856996 1099999.99774038
 60.2493669501313 -15.2318576941001 1099999.99824455
 52.3401466074363 -13.9601919090191 1099999.99866619
 44.7353079016784 -12.8740415565405 1099999.99901501
 37.3966737265734 -11.9627256194100 1099999.99929926
 30.2849939043832 -11.2171416876440 1099999.99952591
 23.3600834795945 -10.6297221652327 1099999.99970060
 16.5811093474595 -10.1944251736045 1099999.99982779
 9.90674118872121 -9.90674118872113 1099999.99991078
 3.29525574616118 -9.76365045335883 1099999.99995173
 -3.39081328942535 -16.3409641003697 1099999.99987340
 -10.1944251736047 -16.5811093474577 1099999.99982779
 -17.0639533940428 -17.0639533940426 1099999.99973529
 -24.0431086322680 -17.7945500099419 1099999.99959331
 -31.1752590870317 -18.7805410852996 1099999.99939791
 -38.5032939230327 -20.0321149242943 1099999.99914373
 -46.0694403152361 -21.5620520630709 1099999.99882395
 -53.9150408048380 -23.3857307450024 1099999.99843013
 -62.0803440456521 -25.5211727637102 1099999.99795214
 -70.6042717562724 -27.9890378505149 1099999.99737802
 -79.5240951647328 -30.8126379400994 1099999.99669386
 -88.8750888754452 -34.0179516091246 1099999.99588364
 -98.6901941576628 -37.6336090480593 1099999.99492907
 -108.999548591839 -41.6908643782657 1099999.99380953
 -119.830047704273 -46.2235365770139 1099999.99250188
 -131.204831182144 -51.2679772105109 1099999.99098040
 -143.142677920704 -56.8629372776974 1099999.98921672
 -155.657427149706 -63.0494270119778 1099999.98717979
 -168.757306583567 -69.8705421271961 1099999.98483594
 -182.444313584899 -77.3712196004594 1099999.98214898
 -196.713399000973 -85.5979678676514 1099999.97908038
 -211.551827601709 -94.5985088835425 1099999.97558952
 -226.938378473352 -104.421376711161 1099999.97163416
 -242.842633701484 -115.115428627197 1099999.96717086
 -259.224273436146 -126.729314300409 1099999.96215566
 -276.032367413566 -139.310787564778 1099999.95654483
 -293.204790178213 -152.906055948580 1099999.95029577
 -310.667667219493 -167.558943107600 1099999.94336800
 -328.334958407792 -183.310027428975 1099999.93572436
 -346.108135659599 -200.195719643524 1099999.92733219
 -363.876022990055 -218.247210561842 1099999.91816472
 -381.514852903000 -237.489417056210 1099999.90820236
 -398.888453737004 -257.939854974303 1099999.89743410
 -415.848739137309 -279.607479632332 1099999.88585885
 -432.236417015491 -302.491517047888 1099999.87348661
 -447.881940871281 -326.580302121146 1099999.86033957
 -462.606805183040 -351.850133052201 1099999.84645291
 -476.225080526875 -378.264187609607 1099999.83187539
 -488.545263968416 -405.771568535024 1099999.81666951
 -499.372441651567 -434.306379984844 1099999.80091141
 -508.510699318754 -463.787065500836 1099999.78469017
 -515.765835470425 -494.115867808367 1099999.76810684
 -520.948253712275 -525.178491096651 1099999.75127291
 -523.876114057764 -556.844080825895 1099999.73430837
 -524.378562354843 -588.965434018077 1099999.71733944
 -522.299103652193 -621.379553424504 1099999.70049591
 -517.498948910962 -653.908488553224 1099999.68390838
 -509.860334242669 -686.360527372967 1099999.66770525
 -499.289706339411 -718.531768755575 1099999.65200989
 -485.720688098063 -750.208001072685 1099999.63693783
 -469.116754674958 -781.166911721221 1099999.62259436
 -449.473491138434 -811.180603181994 1099999.60907248
 -426.820457867504 -840.018387980746 1099999.59645147
 -401.222448875673 -867.449768711181 1099999.58479603
 -372.780197998633 -893.247681249426 1099999.57415606
 -341.630465997945 -917.191721013893 1099999.56456717
 -307.945378512565 -939.071516416663 1099999.55605188
 -271.931142842783 -958.690040296196 1099999.54862121
 -233.826016315998 -975.866771197217 1099999.54227692
 -193.897640240201 -990.440730432299 1099999.53701393
 -152.439718178813 -1002.27319017830 1099999.53282289
 -109.768132216355 -1011.25008561412 1099999.52969273
 -66.2165735382018 -1017.28405127072 1099999.52761286
 -22.1317396256799 -1020.31594644240 1099999.52657515
 22.1317396256744 -1020.31594644241 1099999.52657515
 66.2165735381998 -1017.28405127071 1099999.52761286
 109.768132216349 -1011.25008561412 1099999.52969273
 152.439718178809 -1002.27319017829 1099999.53282289
 193.897640240196 -990.440730432299 1099999.53701393
 233.826016315990 -975.866771197221 1099999.54227692
 271.931142842780 -958.690040296191 1099999.54862121
 307.945378512567 -939.071516416666 1099999.55605188
 341.630465997946 -917.191721013888 1099999.56456717
 372.780197998629 -893.247681249426 1099999.57415606
 401.222448875671 -867.449768711185 1099999.58479603
 426.820457867498 -840.018387980746 1099999.59645147
 449.473491138430 -811.180603181999 1099999.60907248
 469.116754674954 -781.166911721226 1099999.62259436
 485.720688098063 -750.208001072687 1099999.63693783
 499.289706339411 -718.531768755579 1099999.65200989
 509.860334242671 -686.360527372971 1099999.66770525
 517.498948910964 -653.908488553224 1099999.68390838
 522.299103652194 -621.379553424503 1099999.70049591
 524.378562354842 -588.965434018079 1099999.71733944
 523.876114057765 -556.844080825890 1099999.73430837
 520.948253712273 -525.178491096647 1099999.75127291
 515.765835470429 -494.115867808370 1099999.76810684
 508.510699318754 -463.787065500833 1099999.78469017
 499.372441651570 -434.306379984843 1099999.80091141
 488.545263968416 -405.771568535020 1099999.81666951
 476.225080526877 -378.264187609608 1099999.83187539
 462.606805183039 -351.850133052199 1099999.84645291
 447.881940871285 -326.580302121142 1099999.86033957
 432.236417015495 -302.491517047887 1099999.87348661
 415.848739137310 -279.607479632333 1099999.88585885
 398.888453737008 -257.939854974300 1099999.89743410
 381.514852903000 -237.489417056212 1099999.90820236
 363.876022990058 -218.247210561845 1099999.91816472
 346.108135659601 -200.195719643524 1099999.92733219
 328.334958407791 -183.310027428978 1099999.93572436
 310.667667219492 -167.558943107600 1099999.94336800
 293.204790178213 -152.906055948581 1099999.95029577
 276.032367413566 -139.310787564781 1099999.95654483
 259.224273436147 -126.729314300410 1099999.96215566
 242.842633701487 -115.115428627199 1099999.96717086
 226.938378473355 -104.421376711162 1099999.97163416
 211.551827601709 -94.5985088835408 1099999.97558952
 196.713399000972 -85.5979678676522 1099999.97908038
 182.444313584899 -77.3712196004607 1099999.98214898
 168.757306583569 -69.8705421271981 1099999.98483594
 155.657427149706 -63.0494270119805 1099999.98717979
 143.142677920706 -56.8629372777007 1099999.98921672
 131.204831182148 -51.2679772105120 1099999.99098040
 119.830047704274 -46.2235365770122 1099999.99250188
 108.999548591839 -41.6908643782676 1099999.99380953
 98.6901941576614 -37.6336090480607 1099999.99492907
 88.8750888754450 -34.0179516091250 1099999.99588364
 79.5240951647343 -30.8126379400999 1099999.99669386
 70.6042717562708 -27.9890378505145 1099999.99737802
 62.0803440456510 -25.5211727637111 1099999.99795214
 53.9150408048386 -23.3857307450037 1099999.99843013
 46.0694403152363 -21.5620520630711 1099999.99882395
 38.5032939230338 -20.0321149242953 1099999.99914373
 31.1752590870326 -18.7805410853009 1099999.99939791
 24.0431086322673 -17.7945500099402 1099999.99959331
 17.0639533940420 -17.0639533940426 1099999.99973529
 10.1944251736045 -16.5811093474584 1099999.99982779
 3.39081328942522 -16.3409641003690 1099999.99987340
 -3.53539871301388 -23.0203826159466 1099999.99975344
 -10.6297221652325 -23.3600834795945 1099999.99970060
 -17.7945500099417 -24.0431086322673 1099999.99959331
 -25.0766792700883 -25.0766792700893 1099999.99942833
 -32.5225738773861 -26.4716906020680 1099999.99920070
 -40.1782388687047 -28.2426782579350 1099999.99890366
 -48.0890221959122 -30.4078876484945 1099999.99852855
 -56.2994421942907 -32.9892779007891 1099999.99806458
 -64.8529481071616 -36.0125572529354 1099999.99749872
 -73.7916513669666 -39.5072511486025 1099999.99681544
 -83.1560399335581 -43.5066694303756 1099999.99599647
 -92.9846255517207 -48.0479556862307 1099999.99502057
 -103.313542116906 -53.1720569818453 1099999.99386320
 -114.176081222158 -58.9237088674704 1099999.99249628
 -125.602236849688 -65.3513563484521 1099999.99088785
 -137.618127588087 -72.5070905694364 1099999.98900181
 -150.245372639029 -80.4464958915717 1099999.98679759
 -163.500447245906 -89.2284340553427 1099999.98422995
 -177.394010408961 -98.9148054244739 1099999.98124874
 -191.930122953452 -109.570259022004 1099999.97779872
 -207.105462256538 -121.261725778124 1099999.97381951
 -222.908536481559 -134.057992067524 1099999.96924556
 -239.318862606238 -148.029080395753 1099999.96400631
 -256.306118929142 -163.245607520073 1099999.95802638
 -273.829335000848 -179.777954574891 1099999.95122608
 -291.836157668213 -197.695388366056 1099999.94352190
 -310.262122948805 -217.065030610871 1099999.93482736
 -329.029993565452 -237.950722499283 1099999.92505396
 -348.049271739165 -260.411786200907 1099999.91411245
 -367.215782822473 -284.501644651999 1099999.90191426
 -386.411441905329 -310.266372912979 1099999.88837316
 -405.504221972960 -337.743150007350 1099999.87340722
 -424.348320908320 -366.958583076120 1099999.85694085
 -442.784589053718 -397.927109033744 1099999.83890718
 -460.641255998751 -430.649231379048 1099999.81925038
 -477.734907184694 -465.109836916157 1099999.79792825
 -493.871783146003 -501.276542538526 1099999.77491475
 -508.849471636170 -539.098097030290 1099999.75020245
 -522.458828657034 -578.502933932709 1099999.72380502
 -534.486333019316 -619.397870572431 1099999.69575934
 -544.716697861006 -661.667068925510 1099999.66612741
 -552.935823335342 -705.171218405884 1099999.63499791
 -558.934002752801 -749.747053451441 1099999.60248726
 -562.509341287760 -795.207222297004 1099999.56874024
 -563.471415203916 -841.340601623600 1099999.53392988
 -561.644980243994 -887.913046734547 1099999.49825686
 -556.873735020931 -934.668546711846 1099999.46194821
 -549.024083089952 -981.330990899725 1099999.42525532
 -537.988709750108 -1027.60633418972 1099999.38845136
 -523.689960357322 -1073.18536825159 1099999.35182799
 -506.082899508181 -1117.74688540753 1099999.31569160
 -485.157933743726 -1160.96132913462 1099999.28035911
 -460.942956822103 -1202.49482349947 1099999.24615328
 -433.504895453361 -1242.01356959866 1099999.21339781
 -402.950546000688 -1279.18847318639 1099999.18241229
 -369.426773447579 -1313.69994268492 1099999.15350709
 -333.119857325565 -1345.24276304627 1099999.12697832
 -294.254114590821 -1373.53092237145 1099999.10310296
 -253.089709738485 -1398.30229655336 1099999.08213429
 -209.919676655187 -1419.32301834391 1099999.06429774
 -165.066263276823 -1436.39150192142 1099999.04978713
 -118.876596831748 -1449.34196442006 1099999.03876150
 -71.7177790745317 -1458.04738051177 1099999.03134248
 -23.9715290502220 -1462.42177883760 1099999.02761225
 23.9715290502210 -1462.42177883762 1099999.02761225
 71.7177790745280 -1458.04738051176 1099999.03134248
 118.876596831745 -1449.34196442008 1099999.03876150
 165.066263276819 -1436.39150192141 1099999.04978713
 209.919676655181 -1419.32301834392 1099999.06429774
 253.089709738485 -1398.30229655336 1099999.08213429
 294.254114590817 -1373.53092237146 1099999.10310296
 333.119857325567 -1345.24276304627 1099999.12697832
 369.426773447582 -1313.69994268494 1099999.15350709
 402.950546000685 -1279.18847318640 1099999.18241229
 433.504895453359 -1242.01356959867 1099999.21339781
 460.942956822100 -1202.49482349947 1099999.24615328
 485.157933743725 -1160.96132913462 1099999.28035911
 506.082899508181 -1117.74688540754 1099999.31569160
 523.689960357320 -1073.18536825158 1099999.35182799
 537.988709750103 -1027.60633418973 1099999.38845136
 549.024083089965 -981.330990899723 1099999.42525532
 556.873735020941 -934.668546711858 1099999.46194821
 561.644980243990 -887.913046734554 1099999.49825686
 563.471415203918 -841.340601623604 1099999.53392988
 562.509341287762 -795.207222297004 1099999.56874024
 558.934002752802 -749.747053451433 1099999.60248726
 552.935823335342 -705.171218405879 1099999.63499791
 544.716697861011 -661.667068925511 1099999.66612741
 534.486333019315 -619.397870572427 1099999.69575934
 522.458828657035 -578.502933932710 1099999.72380502
 508.849471636168 -539.098097030288 1099999.75020245
 493.871783146005 -501.276542538523 1099999.77491475
 477.734907184694 -465.109836916157 1099999.79792825
 460.641255998757 -430.649231379042 1099999.81925038
 442.784589053721 -397.927109033746 1099999.83890718
 424.348320908322 -366.958583076119 1099999.85694085
 405.504221972962 -337.743150007353 1099999.87340722
 386.411441905330 -310.266372912979 1099999.88837316
 367.215782822475 -284.501644652005 1099999.90191426
 348.049271739164 -260.411786200913 1099999.91411245
 329.029993565454 -237.950722499285 1099999.92505396
 310.262122948803 -217.065030610873 1099999.93482736
 291.836157668213 -197.695388366056 1099999.94352190
 273.829335000850 -179.777954574890 1099999.95122608
 256.306118929142 -163.245607520075 1099999.95802638
 239.318862606240 -148.029080395752 1099999.96400631
 222.908536481559 -134.057992067524 1099999.96924556
 207.105462256538 -121.261725778123 1099999.97381951
 191.930122953451 -109.570259022003 1099999.97779872
 177.394010408962 -98.9148054244779 1099999.98124874
 163.500447245911 -89.2284340553455 1099999.98422995
 150.245372639032 -80.4464958915725 1099999.98679759
 137.618127588089 -72.5070905694388 1099999.98900181
 125.602236849691 -65.3513563484538 1099999.99088785
 114.176081222158 -58.9237088674701 1099999.99249628
 103.313542116906 -53.1720569818465 1099999.99386320
 92.9846255517202 -48.0479556862299 1099999.99502057
 83.1560399335567 -43.5066694303754 1099999.99599647
 73.7916513669666 -39.5072511486033 1099999.99681544
 64.8529481071613 -36.0125572529340 1099999.99749872
 56.2994421942904 -32.9892779007898 1099999.99806458
 48.0890221959129 -30.4078876484954 1099999.99852855
 40.1782388687043 -28.2426782579340 1099999.99890366
 32.5225738773878 -26.4716906020683 1099999.99920070
 25.0766792700899 -25.0766792700911 1099999.99942833
 17.7945500099393 -24.0431086322682 1099999.99959331
 10.6297221652319 -23.3600834795951 1099999.99970060
 3.53539871301434 -23.0203826159472 1099999.99975344
 -3.73051253292808 -29.8422403516474 1099999.99958887
 -11.2171416876446 -30.2849939043839 1099999.99952591
 -18.7805410852993 -31.1752590870327 1099999.99939791
 -26.4716906020683 -32.5225738773858 1099999.99920070
 -34.3412824762988 -34.3412824763000 1099999.99892789
 -42.4395555753079 -36.6505411362754 1099999.99857074
 -50.8161626309097 -39.4744023058606 1099999.99811795
 -59.5199313889182 -42.8418276432754 1099999.99755543
 -68.5986562292322 -46.7867582970227 1099999.99686601
 -78.0988762072359 -51.3481432571363 1099999.99602906
 -88.0654888980193 -56.5700021056540 1099999.99502014
 -98.5414229841726 -62.5014056763539 1099999.99381053
 -109.567202818209 -69.1965220064423 1099999.99236676
 -121.180494698792 -76.7145591418077 1099999.99065007
 -133.415561242490 -85.1196919694867 1099999.98861588
 -146.302659855211 -94.4809997889163 1099999.98621312
 -159.867359631101 -104.872235682583 1099999.98338375
 -174.129843656962 -116.371609768449 1099999.98006202
 -189.104145347695 -129.061459450817 1099999.97617398
 -204.797268440400 -143.027860232187 1099999.97163687
 -221.208377089253 -158.360089041741 1099999.96635861
 -238.327802096307 -175.149994805042 1099999.96023743
 -256.136170397323 -193.491255248349 1099999.95316154
 -274.603435787955 -213.478487702706 1099999.94500904
 -293.687939271905 -235.206206757553 1099999.93564792
 -313.335499246143 -258.767644722339 1099999.92493644
 -333.478582894599 -284.253385059560 1099999.91272365
 -354.035534292188 -311.749871229101 1099999.89885039
 -374.909888124480 -341.337768600128 1099999.88315050
 -395.989887854500 -373.090094236557 1099999.86545262